
     Program PWSCF v.7.2 starts on 20Jun2025 at  8:24:59 

     This program is part of the open-source Quantum ESPRESSO suite
     for quantum simulation of materials; please cite
         "P. Giannozzi et al., J. Phys.:Condens. Matter 21 395502 (2009);
         "P. Giannozzi et al., J. Phys.:Condens. Matter 29 465901 (2017);
         "P. Giannozzi et al., J. Chem. Phys. 152 154105 (2020);
          URL http://www.quantum-espresso.org", 
     in publications or presentations arising from this work. More details at
     http://www.quantum-espresso.org/quote

     Parallel version (MPI & OpenMP), running on      36 processor cores
     Number of MPI processes:                 6
     Threads/MPI process:                     6

     MPI processes distributed on     1 nodes
     13035 MiB available memory on the printing compute node when the environment starts

     Reading input from QWscf.in

     Current dimensions of program PWSCF are:
     Max number of different atomic species (ntypx) = 10
     Max number of k-points (npk) =  40000
     Max angular momentum in pseudopotentials (lmaxx) =  4
     file Al.pbe-n-kjpaw_psl.1.0.0.UPF: wavefunction(s)  3S 3P renormalized
     file Ga.pbe-dn-kjpaw_psl.1.0.0.UPF: wavefunction(s)  4S renormalized
     Found identity + (  0.0000 -0.5000  0.0000) symmetry
     This is a supercell, fractional translations are disabled
     Message from routine setup:
     using ibrav=0 with symmetry is DISCOURAGED, use correct ibrav instead

     R & G space division:  proc/nbgrp/npool/nimage =       6
     Subspace diagonalization in iterative solution of the eigenvalue problem:
     one sub-group per band group will be used
     custom distributed-memory algorithm (size of sub-group:  2*  2 procs)


     Parallelization info
     --------------------
     sticks:   dense  smooth     PW     G-vecs:    dense   smooth      PW
     Min        1058     604    163               597044   257784   36405
     Max        1059     605    164               597075   257795   36439
     Sum        6349    3625    981              3582313  1546727  218513

     Using Slab Decomposition



     bravais-lattice index     =            0
     lattice parameter (alat)  =      21.3679  a.u.
     unit-cell volume          =   91648.2157 (a.u.)^3
     number of atoms/cell      =          128
     number of atomic types    =            3
     number of electrons       =       672.00
     number of Kohn-Sham states=          336
     kinetic-energy cutoff     =      25.0000  Ry
     charge density cutoff     =     175.0000  Ry
     scf convergence threshold =      1.0E-06
     mixing beta               =       0.7000
     number of iterations used =            8  plain     mixing
     Exchange-correlation= PBE
                           (   1   4   3   4   0   0   0)

     celldm(1)=  21.367889  celldm(2)=   0.000000  celldm(3)=   0.000000
     celldm(4)=   0.000000  celldm(5)=   0.000000  celldm(6)=   0.000000

     crystal axes: (cart. coord. in units of alat)
               a(1) = (   1.000000   0.000000   0.000000 )  
               a(2) = (   0.000000   1.000000   0.000000 )  
               a(3) = (   0.000000   0.000000   9.393753 )  

     reciprocal axes: (cart. coord. in units 2 pi/alat)
               b(1) = (  1.000000  0.000000  0.000000 )  
               b(2) = (  0.000000  1.000000  0.000000 )  
               b(3) = (  0.000000  0.000000  0.106454 )  


     PseudoPot. # 1 for Al read from file:
     ./pseudo/Al.pbe-n-kjpaw_psl.1.0.0.UPF
     MD5 check sum: cfc449ca30b5f3223ec38ddd88ac046d
     Pseudo is Projector augmented-wave + core cor, Zval =  3.0
     Generated using "atomic" code by A. Dal Corso  v.5.1
     Shape of augmentation charge: PSQ
     Using radial grid of 1135 points,  6 beta functions with: 
                l(1) =   0
                l(2) =   0
                l(3) =   1
                l(4) =   1
                l(5) =   2
                l(6) =   2
     Q(r) pseudized with 0 coefficients 


     PseudoPot. # 2 for Ga read from file:
     ./pseudo/Ga.pbe-dn-kjpaw_psl.1.0.0.UPF
     MD5 check sum: a27b4342b1af7e5f338de752e9ed7044
     Pseudo is Projector augmented-wave + core cor, Zval = 13.0
     Generated using "atomic" code by A. Dal Corso  v.5.1
     Shape of augmentation charge: PSQ
     Using radial grid of 1205 points,  6 beta functions with: 
                l(1) =   0
                l(2) =   0
                l(3) =   1
                l(4) =   1
                l(5) =   2
                l(6) =   2
     Q(r) pseudized with 0 coefficients 


     PseudoPot. # 3 for As read from file:
     ./pseudo/As.pbe-n-rrkjus_psl.0.2.UPF
     MD5 check sum: 767315de957beeeb34f87d97bf945c8f
     Pseudo is Ultrasoft + core correction, Zval =  5.0
     Generated using "atomic" code by A. Dal Corso  v.5.0.99 svn rev. 10869
     Using radial grid of 1209 points,  4 beta functions with: 
                l(1) =   0
                l(2) =   0
                l(3) =   1
                l(4) =   1
     Q(r) pseudized with 0 coefficients 


     atomic species   valence    mass     pseudopotential
        Al             3.00    26.98150     Al( 1.00)
        Ga            13.00    69.72300     Ga( 1.00)
        As             5.00    74.92160     As( 1.00)

      2 Sym. Ops. (no inversion) found


                                    s                        frac. trans.

      isym =  1     identity                                     

 cryst.   s( 1) = (     1          0          0      )
                  (     0          1          0      )
                  (     0          0          1      )

 cart.    s( 1) = (  1.0000000  0.0000000  0.0000000 )
                  (  0.0000000  1.0000000  0.0000000 )
                  (  0.0000000  0.0000000  1.0000000 )


      isym =  2     inv. 180 deg rotation - cart. axis [1,-1,0]  

 cryst.   s( 2) = (     0          1          0      )
                  (     1          0          0      )
                  (     0          0          1      )

 cart.    s( 2) = (  0.0000000  1.0000000  0.0000000 )
                  (  1.0000000  0.0000000  0.0000000 )
                  (  0.0000000  0.0000000  1.0000000 )


   Cartesian axes

     site n.     atom                  positions (alat units)
         1           Al  tau(   1) = (   0.0000000   0.0000000   0.8843766  )
         2           As  tau(   2) = (   0.1250000   0.1250000   1.0093766  )
         3           Al  tau(   3) = (   0.0000000   0.0000000   1.3843766  )
         4           As  tau(   4) = (   0.1250000   0.1250000   1.5093766  )
         5           Al  tau(   5) = (   0.0000000   0.0000000   1.8843766  )
         6           As  tau(   6) = (   0.1250000   0.1250000   2.0093766  )
         7           Al  tau(   7) = (   0.0000000   0.0000000   2.3843766  )
         8           As  tau(   8) = (   0.1250000   0.1250000   2.5093766  )
         9           Al  tau(   9) = (   0.0000000   0.0000000   2.8843766  )
        10           As  tau(  10) = (   0.1250000   0.1250000   3.0093766  )
        11           Al  tau(  11) = (   0.0000000   0.0000000   3.3843766  )
        12           As  tau(  12) = (   0.1250000   0.1250000   3.5093766  )
        13           Ga  tau(  13) = (   0.0000000   0.0000000   3.8843766  )
        14           As  tau(  14) = (   0.1250000   0.1250000   4.0093766  )
        15           Ga  tau(  15) = (   0.0000000   0.0000000   4.3843766  )
        16           As  tau(  16) = (   0.1250000   0.1250000   4.5093766  )
        17           Ga  tau(  17) = (   0.0000000   0.0000000   4.8843766  )
        18           As  tau(  18) = (   0.1250000   0.1250000   5.0093766  )
        19           Ga  tau(  19) = (   0.0000000   0.0000000   5.3843766  )
        20           As  tau(  20) = (   0.1250000   0.1250000   5.5093766  )
        21           Al  tau(  21) = (   0.0000000   0.0000000   5.8843766  )
        22           As  tau(  22) = (   0.1250000   0.1250000   6.0093766  )
        23           Al  tau(  23) = (   0.0000000   0.0000000   6.3843766  )
        24           As  tau(  24) = (   0.1250000   0.1250000   6.5093766  )
        25           Al  tau(  25) = (   0.0000000   0.0000000   6.8843766  )
        26           As  tau(  26) = (   0.1250000   0.1250000   7.0093766  )
        27           Al  tau(  27) = (   0.0000000   0.0000000   7.3843766  )
        28           As  tau(  28) = (   0.1250000   0.1250000   7.5093766  )
        29           Al  tau(  29) = (   0.0000000   0.0000000   7.8843766  )
        30           As  tau(  30) = (   0.1250000   0.1250000   8.0093766  )
        31           Al  tau(  31) = (   0.0000000   0.0000000   8.3843766  )
        32           As  tau(  32) = (   0.1250000   0.1250000   8.5093766  )
        33           Al  tau(  33) = (   0.0000000   0.5000000   0.8843766  )
        34           As  tau(  34) = (   0.1250000   0.6250000   1.0093766  )
        35           Al  tau(  35) = (   0.0000000   0.5000000   1.3843766  )
        36           As  tau(  36) = (   0.1250000   0.6250000   1.5093766  )
        37           Al  tau(  37) = (   0.0000000   0.5000000   1.8843766  )
        38           As  tau(  38) = (   0.1250000   0.6250000   2.0093766  )
        39           Al  tau(  39) = (   0.0000000   0.5000000   2.3843766  )
        40           As  tau(  40) = (   0.1250000   0.6250000   2.5093766  )
        41           Al  tau(  41) = (   0.0000000   0.5000000   2.8843766  )
        42           As  tau(  42) = (   0.1250000   0.6250000   3.0093766  )
        43           Al  tau(  43) = (   0.0000000   0.5000000   3.3843766  )
        44           As  tau(  44) = (   0.1250000   0.6250000   3.5093766  )
        45           Ga  tau(  45) = (   0.0000000   0.5000000   3.8843766  )
        46           As  tau(  46) = (   0.1250000   0.6250000   4.0093766  )
        47           Ga  tau(  47) = (   0.0000000   0.5000000   4.3843766  )
        48           As  tau(  48) = (   0.1250000   0.6250000   4.5093766  )
        49           Ga  tau(  49) = (   0.0000000   0.5000000   4.8843766  )
        50           As  tau(  50) = (   0.1250000   0.6250000   5.0093766  )
        51           Ga  tau(  51) = (   0.0000000   0.5000000   5.3843766  )
        52           As  tau(  52) = (   0.1250000   0.6250000   5.5093766  )
        53           Al  tau(  53) = (   0.0000000   0.5000000   5.8843766  )
        54           As  tau(  54) = (   0.1250000   0.6250000   6.0093766  )
        55           Al  tau(  55) = (   0.0000000   0.5000000   6.3843766  )
        56           As  tau(  56) = (   0.1250000   0.6250000   6.5093766  )
        57           Al  tau(  57) = (   0.0000000   0.5000000   6.8843766  )
        58           As  tau(  58) = (   0.1250000   0.6250000   7.0093766  )
        59           Al  tau(  59) = (   0.0000000   0.5000000   7.3843766  )
        60           As  tau(  60) = (   0.1250000   0.6250000   7.5093766  )
        61           Al  tau(  61) = (   0.0000000   0.5000000   7.8843766  )
        62           As  tau(  62) = (   0.1250000   0.6250000   8.0093766  )
        63           Al  tau(  63) = (   0.0000000   0.5000000   8.3843766  )
        64           As  tau(  64) = (   0.1250000   0.6250000   8.5093766  )
        65           Al  tau(  65) = (   0.5000000   0.0000000   0.8843766  )
        66           As  tau(  66) = (   0.6250000   0.1250000   1.0093766  )
        67           Al  tau(  67) = (   0.5000000   0.0000000   1.3843766  )
        68           As  tau(  68) = (   0.6250000   0.1250000   1.5093766  )
        69           Al  tau(  69) = (   0.5000000   0.0000000   1.8843766  )
        70           As  tau(  70) = (   0.6250000   0.1250000   2.0093766  )
        71           Al  tau(  71) = (   0.5000000   0.0000000   2.3843766  )
        72           As  tau(  72) = (   0.6250000   0.1250000   2.5093766  )
        73           Al  tau(  73) = (   0.5000000   0.0000000   2.8843766  )
        74           As  tau(  74) = (   0.6250000   0.1250000   3.0093766  )
        75           Al  tau(  75) = (   0.5000000   0.0000000   3.3843766  )
        76           As  tau(  76) = (   0.6250000   0.1250000   3.5093766  )
        77           Ga  tau(  77) = (   0.5000000   0.0000000   3.8843766  )
        78           As  tau(  78) = (   0.6250000   0.1250000   4.0093766  )
        79           Ga  tau(  79) = (   0.5000000   0.0000000   4.3843766  )
        80           As  tau(  80) = (   0.6250000   0.1250000   4.5093766  )
        81           Ga  tau(  81) = (   0.5000000   0.0000000   4.8843766  )
        82           As  tau(  82) = (   0.6250000   0.1250000   5.0093766  )
        83           Ga  tau(  83) = (   0.5000000   0.0000000   5.3843766  )
        84           As  tau(  84) = (   0.6250000   0.1250000   5.5093766  )
        85           Al  tau(  85) = (   0.5000000   0.0000000   5.8843766  )
        86           As  tau(  86) = (   0.6250000   0.1250000   6.0093766  )
        87           Al  tau(  87) = (   0.5000000   0.0000000   6.3843766  )
        88           As  tau(  88) = (   0.6250000   0.1250000   6.5093766  )
        89           Al  tau(  89) = (   0.5000000   0.0000000   6.8843766  )
        90           As  tau(  90) = (   0.6250000   0.1250000   7.0093766  )
        91           Al  tau(  91) = (   0.5000000   0.0000000   7.3843766  )
        92           As  tau(  92) = (   0.6250000   0.1250000   7.5093766  )
        93           Al  tau(  93) = (   0.5000000   0.0000000   7.8843766  )
        94           As  tau(  94) = (   0.6250000   0.1250000   8.0093766  )
        95           Al  tau(  95) = (   0.5000000   0.0000000   8.3843766  )
        96           As  tau(  96) = (   0.6250000   0.1250000   8.5093766  )
        97           Al  tau(  97) = (   0.5000000   0.5000000   0.8843766  )
        98           As  tau(  98) = (   0.6250000   0.6250000   1.0093766  )
        99           Al  tau(  99) = (   0.5000000   0.5000000   1.3843766  )
       100           As  tau( 100) = (   0.6250000   0.6250000   1.5093766  )
       101           Al  tau( 101) = (   0.5000000   0.5000000   1.8843766  )
       102           As  tau( 102) = (   0.6250000   0.6250000   2.0093766  )
       103           Al  tau( 103) = (   0.5000000   0.5000000   2.3843766  )
       104           As  tau( 104) = (   0.6250000   0.6250000   2.5093766  )
       105           Al  tau( 105) = (   0.5000000   0.5000000   2.8843766  )
       106           As  tau( 106) = (   0.6250000   0.6250000   3.0093766  )
       107           Al  tau( 107) = (   0.5000000   0.5000000   3.3843766  )
       108           As  tau( 108) = (   0.6250000   0.6250000   3.5093766  )
       109           Ga  tau( 109) = (   0.5000000   0.5000000   3.8843766  )
       110           As  tau( 110) = (   0.6250000   0.6250000   4.0093766  )
       111           Ga  tau( 111) = (   0.5000000   0.5000000   4.3843766  )
       112           As  tau( 112) = (   0.6250000   0.6250000   4.5093766  )
       113           Ga  tau( 113) = (   0.5000000   0.5000000   4.8843766  )
       114           As  tau( 114) = (   0.6250000   0.6250000   5.0093766  )
       115           Ga  tau( 115) = (   0.5000000   0.5000000   5.3843766  )
       116           As  tau( 116) = (   0.6250000   0.6250000   5.5093766  )
       117           Al  tau( 117) = (   0.5000000   0.5000000   5.8843766  )
       118           As  tau( 118) = (   0.6250000   0.6250000   6.0093766  )
       119           Al  tau( 119) = (   0.5000000   0.5000000   6.3843766  )
       120           As  tau( 120) = (   0.6250000   0.6250000   6.5093766  )
       121           Al  tau( 121) = (   0.5000000   0.5000000   6.8843766  )
       122           As  tau( 122) = (   0.6250000   0.6250000   7.0093766  )
       123           Al  tau( 123) = (   0.5000000   0.5000000   7.3843766  )
       124           As  tau( 124) = (   0.6250000   0.6250000   7.5093766  )
       125           Al  tau( 125) = (   0.5000000   0.5000000   7.8843766  )
       126           As  tau( 126) = (   0.6250000   0.6250000   8.0093766  )
       127           Al  tau( 127) = (   0.5000000   0.5000000   8.3843766  )
       128           As  tau( 128) = (   0.6250000   0.6250000   8.5093766  )

   Crystallographic axes

     site n.     atom                  positions (cryst. coord.)
         1           Al  tau(   1) = (  0.0000000  0.0000000  0.0941452  )
         2           As  tau(   2) = (  0.1250000  0.1250000  0.1074519  )
         3           Al  tau(   3) = (  0.0000000  0.0000000  0.1473720  )
         4           As  tau(   4) = (  0.1250000  0.1250000  0.1606788  )
         5           Al  tau(   5) = (  0.0000000  0.0000000  0.2005989  )
         6           As  tau(   6) = (  0.1250000  0.1250000  0.2139056  )
         7           Al  tau(   7) = (  0.0000000  0.0000000  0.2538258  )
         8           As  tau(   8) = (  0.1250000  0.1250000  0.2671325  )
         9           Al  tau(   9) = (  0.0000000  0.0000000  0.3070526  )
        10           As  tau(  10) = (  0.1250000  0.1250000  0.3203593  )
        11           Al  tau(  11) = (  0.0000000  0.0000000  0.3602795  )
        12           As  tau(  12) = (  0.1250000  0.1250000  0.3735862  )
        13           Ga  tau(  13) = (  0.0000000  0.0000000  0.4135064  )
        14           As  tau(  14) = (  0.1250000  0.1250000  0.4268131  )
        15           Ga  tau(  15) = (  0.0000000  0.0000000  0.4667332  )
        16           As  tau(  16) = (  0.1250000  0.1250000  0.4800399  )
        17           Ga  tau(  17) = (  0.0000000  0.0000000  0.5199601  )
        18           As  tau(  18) = (  0.1250000  0.1250000  0.5332668  )
        19           Ga  tau(  19) = (  0.0000000  0.0000000  0.5731869  )
        20           As  tau(  20) = (  0.1250000  0.1250000  0.5864936  )
        21           Al  tau(  21) = (  0.0000000  0.0000000  0.6264138  )
        22           As  tau(  22) = (  0.1250000  0.1250000  0.6397205  )
        23           Al  tau(  23) = (  0.0000000  0.0000000  0.6796407  )
        24           As  tau(  24) = (  0.1250000  0.1250000  0.6929474  )
        25           Al  tau(  25) = (  0.0000000  0.0000000  0.7328675  )
        26           As  tau(  26) = (  0.1250000  0.1250000  0.7461742  )
        27           Al  tau(  27) = (  0.0000000  0.0000000  0.7860944  )
        28           As  tau(  28) = (  0.1250000  0.1250000  0.7994011  )
        29           Al  tau(  29) = (  0.0000000  0.0000000  0.8393212  )
        30           As  tau(  30) = (  0.1250000  0.1250000  0.8526280  )
        31           Al  tau(  31) = (  0.0000000  0.0000000  0.8925481  )
        32           As  tau(  32) = (  0.1250000  0.1250000  0.9058548  )
        33           Al  tau(  33) = (  0.0000000  0.5000000  0.0941452  )
        34           As  tau(  34) = (  0.1250000  0.6250000  0.1074519  )
        35           Al  tau(  35) = (  0.0000000  0.5000000  0.1473720  )
        36           As  tau(  36) = (  0.1250000  0.6250000  0.1606788  )
        37           Al  tau(  37) = (  0.0000000  0.5000000  0.2005989  )
        38           As  tau(  38) = (  0.1250000  0.6250000  0.2139056  )
        39           Al  tau(  39) = (  0.0000000  0.5000000  0.2538258  )
        40           As  tau(  40) = (  0.1250000  0.6250000  0.2671325  )
        41           Al  tau(  41) = (  0.0000000  0.5000000  0.3070526  )
        42           As  tau(  42) = (  0.1250000  0.6250000  0.3203593  )
        43           Al  tau(  43) = (  0.0000000  0.5000000  0.3602795  )
        44           As  tau(  44) = (  0.1250000  0.6250000  0.3735862  )
        45           Ga  tau(  45) = (  0.0000000  0.5000000  0.4135064  )
        46           As  tau(  46) = (  0.1250000  0.6250000  0.4268131  )
        47           Ga  tau(  47) = (  0.0000000  0.5000000  0.4667332  )
        48           As  tau(  48) = (  0.1250000  0.6250000  0.4800399  )
        49           Ga  tau(  49) = (  0.0000000  0.5000000  0.5199601  )
        50           As  tau(  50) = (  0.1250000  0.6250000  0.5332668  )
        51           Ga  tau(  51) = (  0.0000000  0.5000000  0.5731869  )
        52           As  tau(  52) = (  0.1250000  0.6250000  0.5864936  )
        53           Al  tau(  53) = (  0.0000000  0.5000000  0.6264138  )
        54           As  tau(  54) = (  0.1250000  0.6250000  0.6397205  )
        55           Al  tau(  55) = (  0.0000000  0.5000000  0.6796407  )
        56           As  tau(  56) = (  0.1250000  0.6250000  0.6929474  )
        57           Al  tau(  57) = (  0.0000000  0.5000000  0.7328675  )
        58           As  tau(  58) = (  0.1250000  0.6250000  0.7461742  )
        59           Al  tau(  59) = (  0.0000000  0.5000000  0.7860944  )
        60           As  tau(  60) = (  0.1250000  0.6250000  0.7994011  )
        61           Al  tau(  61) = (  0.0000000  0.5000000  0.8393212  )
        62           As  tau(  62) = (  0.1250000  0.6250000  0.8526280  )
        63           Al  tau(  63) = (  0.0000000  0.5000000  0.8925481  )
        64           As  tau(  64) = (  0.1250000  0.6250000  0.9058548  )
        65           Al  tau(  65) = (  0.5000000  0.0000000  0.0941452  )
        66           As  tau(  66) = (  0.6250000  0.1250000  0.1074519  )
        67           Al  tau(  67) = (  0.5000000  0.0000000  0.1473720  )
        68           As  tau(  68) = (  0.6250000  0.1250000  0.1606788  )
        69           Al  tau(  69) = (  0.5000000  0.0000000  0.2005989  )
        70           As  tau(  70) = (  0.6250000  0.1250000  0.2139056  )
        71           Al  tau(  71) = (  0.5000000  0.0000000  0.2538258  )
        72           As  tau(  72) = (  0.6250000  0.1250000  0.2671325  )
        73           Al  tau(  73) = (  0.5000000  0.0000000  0.3070526  )
        74           As  tau(  74) = (  0.6250000  0.1250000  0.3203593  )
        75           Al  tau(  75) = (  0.5000000  0.0000000  0.3602795  )
        76           As  tau(  76) = (  0.6250000  0.1250000  0.3735862  )
        77           Ga  tau(  77) = (  0.5000000  0.0000000  0.4135064  )
        78           As  tau(  78) = (  0.6250000  0.1250000  0.4268131  )
        79           Ga  tau(  79) = (  0.5000000  0.0000000  0.4667332  )
        80           As  tau(  80) = (  0.6250000  0.1250000  0.4800399  )
        81           Ga  tau(  81) = (  0.5000000  0.0000000  0.5199601  )
        82           As  tau(  82) = (  0.6250000  0.1250000  0.5332668  )
        83           Ga  tau(  83) = (  0.5000000  0.0000000  0.5731869  )
        84           As  tau(  84) = (  0.6250000  0.1250000  0.5864936  )
        85           Al  tau(  85) = (  0.5000000  0.0000000  0.6264138  )
        86           As  tau(  86) = (  0.6250000  0.1250000  0.6397205  )
        87           Al  tau(  87) = (  0.5000000  0.0000000  0.6796407  )
        88           As  tau(  88) = (  0.6250000  0.1250000  0.6929474  )
        89           Al  tau(  89) = (  0.5000000  0.0000000  0.7328675  )
        90           As  tau(  90) = (  0.6250000  0.1250000  0.7461742  )
        91           Al  tau(  91) = (  0.5000000  0.0000000  0.7860944  )
        92           As  tau(  92) = (  0.6250000  0.1250000  0.7994011  )
        93           Al  tau(  93) = (  0.5000000  0.0000000  0.8393212  )
        94           As  tau(  94) = (  0.6250000  0.1250000  0.8526280  )
        95           Al  tau(  95) = (  0.5000000  0.0000000  0.8925481  )
        96           As  tau(  96) = (  0.6250000  0.1250000  0.9058548  )
        97           Al  tau(  97) = (  0.5000000  0.5000000  0.0941452  )
        98           As  tau(  98) = (  0.6250000  0.6250000  0.1074519  )
        99           Al  tau(  99) = (  0.5000000  0.5000000  0.1473720  )
       100           As  tau( 100) = (  0.6250000  0.6250000  0.1606788  )
       101           Al  tau( 101) = (  0.5000000  0.5000000  0.2005989  )
       102           As  tau( 102) = (  0.6250000  0.6250000  0.2139056  )
       103           Al  tau( 103) = (  0.5000000  0.5000000  0.2538258  )
       104           As  tau( 104) = (  0.6250000  0.6250000  0.2671325  )
       105           Al  tau( 105) = (  0.5000000  0.5000000  0.3070526  )
       106           As  tau( 106) = (  0.6250000  0.6250000  0.3203593  )
       107           Al  tau( 107) = (  0.5000000  0.5000000  0.3602795  )
       108           As  tau( 108) = (  0.6250000  0.6250000  0.3735862  )
       109           Ga  tau( 109) = (  0.5000000  0.5000000  0.4135064  )
       110           As  tau( 110) = (  0.6250000  0.6250000  0.4268131  )
       111           Ga  tau( 111) = (  0.5000000  0.5000000  0.4667332  )
       112           As  tau( 112) = (  0.6250000  0.6250000  0.4800399  )
       113           Ga  tau( 113) = (  0.5000000  0.5000000  0.5199601  )
       114           As  tau( 114) = (  0.6250000  0.6250000  0.5332668  )
       115           Ga  tau( 115) = (  0.5000000  0.5000000  0.5731869  )
       116           As  tau( 116) = (  0.6250000  0.6250000  0.5864936  )
       117           Al  tau( 117) = (  0.5000000  0.5000000  0.6264138  )
       118           As  tau( 118) = (  0.6250000  0.6250000  0.6397205  )
       119           Al  tau( 119) = (  0.5000000  0.5000000  0.6796407  )
       120           As  tau( 120) = (  0.6250000  0.6250000  0.6929474  )
       121           Al  tau( 121) = (  0.5000000  0.5000000  0.7328675  )
       122           As  tau( 122) = (  0.6250000  0.6250000  0.7461742  )
       123           Al  tau( 123) = (  0.5000000  0.5000000  0.7860944  )
       124           As  tau( 124) = (  0.6250000  0.6250000  0.7994011  )
       125           Al  tau( 125) = (  0.5000000  0.5000000  0.8393212  )
       126           As  tau( 126) = (  0.6250000  0.6250000  0.8526280  )
       127           Al  tau( 127) = (  0.5000000  0.5000000  0.8925481  )
       128           As  tau( 128) = (  0.6250000  0.6250000  0.9058548  )

     number of k points=     3
                       cart. coord. in units 2pi/alat
        k(    1) = (   0.0000000   0.0000000   0.0000000), wk =   0.5000000
        k(    2) = (   0.0000000  -0.5000000   0.0000000), wk =   1.0000000
        k(    3) = (  -0.5000000  -0.5000000   0.0000000), wk =   0.5000000

                       cryst. coord.
        k(    1) = (   0.0000000   0.0000000   0.0000000), wk =   0.5000000
        k(    2) = (   0.0000000  -0.5000000   0.0000000), wk =   1.0000000
        k(    3) = (  -0.5000000  -0.5000000   0.0000000), wk =   0.5000000

     Dense  grid:  3582313 G-vectors     FFT dimensions: (  90,  90, 864)

     Smooth grid:  1546727 G-vectors     FFT dimensions: (  72,  72, 640)

     Dynamical RAM for                 wfc:     165.30 MB

     Dynamical RAM for     wfc (w. buffer):     661.21 MB

     Dynamical RAM for           str. fact:      27.33 MB

     Dynamical RAM for           local pot:       0.00 MB

     Dynamical RAM for          nlocal pot:     818.64 MB

     Dynamical RAM for                qrad:       3.19 MB

     Dynamical RAM for          rho,v,vnew:      54.03 MB

     Dynamical RAM for               rhoin:      18.01 MB

     Dynamical RAM for            rho*nmix:     145.76 MB

     Dynamical RAM for           G-vectors:      36.13 MB

     Dynamical RAM for          h,s,v(r/c):       5.17 MB

     Dynamical RAM for          <psi|beta>:       8.53 MB

     Dynamical RAM for                 psi:     330.61 MB

     Dynamical RAM for                hpsi:     330.61 MB

     Dynamical RAM for                spsi:     330.61 MB

     Dynamical RAM for      wfcinit/wfcrot:     590.52 MB

     Dynamical RAM for           addusdens:    2277.57 MB

     Estimated static dynamical RAM per process >       1.66 GB

     Estimated max dynamical RAM per process >       4.03 GB

     Estimated total dynamical RAM >      24.16 GB

     Check: negative core charge=   -0.000001

     Initial potential from superposition of free atoms

     starting charge     671.8277, renormalised to     672.0000

     negative rho (up, down):  2.202E-03 0.000E+00
     Starting wfcs are  592 randomized atomic wfcs
     Checking if some PAW data can be deallocated... 
       PAW data deallocated on    2 nodes for type:  2

     total cpu time spent up to now is      903.0 secs

     Self-consistent Calculation

     iteration #  1     ecut=    25.00 Ry     beta= 0.70
     Davidson diagonalization with overlap

---- Real-time Memory Report at c_bands before calling an iterative solver
          2271 MiB given to the printing process from OS
             0 MiB allocation reported by mallinfo(arena+hblkhd)
          3485 MiB available memory on the node where the printing process lives
------------------
     ethr =  1.00E-02,  avg # of iterations =  1.0

     negative rho (up, down):  2.726E-04 0.000E+00

     total cpu time spent up to now is     2477.4 secs

     total energy              =   -7460.25585091 Ry
     estimated scf accuracy    <      36.79718211 Ry

     iteration #  2     ecut=    25.00 Ry     beta= 0.70
     Davidson diagonalization with overlap

---- Real-time Memory Report at c_bands before calling an iterative solver
          2956 MiB given to the printing process from OS
             0 MiB allocation reported by mallinfo(arena+hblkhd)
         12473 MiB available memory on the node where the printing process lives
------------------
     c_bands:  5 eigenvalues not converged
     ethr =  5.48E-03,  avg # of iterations = 21.3

     negative rho (up, down):  1.023E-02 0.000E+00

     total cpu time spent up to now is    11839.2 secs

     total energy              =   -7177.94366064 Ry
     estimated scf accuracy    <   66853.29243912 Ry

     iteration #  3     ecut=    25.00 Ry     beta= 0.70
     Davidson diagonalization with overlap

---- Real-time Memory Report at c_bands before calling an iterative solver
          2956 MiB given to the printing process from OS
             0 MiB allocation reported by mallinfo(arena+hblkhd)
         12537 MiB available memory on the node where the printing process lives
------------------
     ethr =  5.48E-03,  avg # of iterations = 22.3

     negative rho (up, down):  2.510E-02 0.000E+00

     total cpu time spent up to now is    21770.5 secs

     total energy              =   -7403.68969466 Ry
     estimated scf accuracy    <    8381.24235286 Ry

     iteration #  4     ecut=    25.00 Ry     beta= 0.70
     Davidson diagonalization with overlap

---- Real-time Memory Report at c_bands before calling an iterative solver
          2956 MiB given to the printing process from OS
             0 MiB allocation reported by mallinfo(arena+hblkhd)
         12490 MiB available memory on the node where the printing process lives
------------------
     c_bands:  2 eigenvalues not converged
     c_bands:  1 eigenvalues not converged
     ethr =  5.48E-03,  avg # of iterations = 21.7

     negative rho (up, down):  2.873E-02 0.000E+00

     total cpu time spent up to now is    28671.9 secs

     total energy              =   -7400.17588248 Ry
     estimated scf accuracy    <   22114.04479271 Ry

     iteration #  5     ecut=    25.00 Ry     beta= 0.70
     Davidson diagonalization with overlap

---- Real-time Memory Report at c_bands before calling an iterative solver
          2956 MiB given to the printing process from OS
             0 MiB allocation reported by mallinfo(arena+hblkhd)
         12467 MiB available memory on the node where the printing process lives
------------------
